# vtk DataFile Version 2.0
b2 grid
ASCII

DATASET UNSTRUCTURED_GRID
POINTS 9120 float
4.0955 -3.80835 0
4.09563 -3.80829 0
4.09567 -3.80822 0
4.09555 -3.80827 0
4.09555 -3.80827 0
4.09567 -3.80822 0
4.10037 -3.80056 0
4.10024 -3.80062 0
4.10024 -3.80062 0
4.10037 -3.80056 0
4.10521 -3.79268 0
4.10508 -3.79273 0
4.10508 -3.79273 0
4.10521 -3.79268 0
4.10997 -3.78492 0
4.10984 -3.78498 0
4.10984 -3.78498 0
4.10997 -3.78492 0
4.11466 -3.77728 0
4.11453 -3.77734 0
4.11453 -3.77734 0
4.11466 -3.77728 0
4.11907 -3.7701 0
4.11894 -3.77015 0
4.11894 -3.77015 0
4.11907 -3.7701 0
4.12285 -3.76393 0
4.12272 -3.76399 0
4.12272 -3.76399 0
4.12285 -3.76393 0
4.12584 -3.75907 0
4.1257 -3.75912 0
4.1257 -3.75912 0
4.12584 -3.75907 0
4.128 -3.75553 0
4.12787 -3.75559 0
4.12787 -3.75559 0
4.128 -3.75553 0
4.13354 -3.74651 0
4.13341 -3.74656 0
4.13341 -3.74656 0
4.13354 -3.74651 0
4.13994 -3.73607 0
4.13981 -3.73613 0
4.13981 -3.73613 0
4.13994 -3.73607 0
4.14728 -3.72412 0
4.14715 -3.72418 0
4.14715 -3.72418 0
4.14728 -3.72412 0
4.15527 -3.7111 0
4.15513 -3.71116 0
4.15513 -3.71116 0
4.15527 -3.7111 0
4.16384 -3.69712 0
4.16371 -3.69718 0
4.16371 -3.69718 0
4.16384 -3.69712 0
4.17351 -3.68136 0
4.17338 -3.68143 0
4.17338 -3.68143 0
4.17351 -3.68136 0
4.18378 -3.66464 0
4.18365 -3.6647 0
4.18365 -3.6647 0
4.18378 -3.66464 0
4.1948 -3.64668 0
4.19467 -3.64674 0
4.19467 -3.64674 0
4.1948 -3.64668 0
4.20691 -3.62694 0
4.20679 -3.627 0
4.20679 -3.627 0
4.20691 -3.62694 0
4.21969 -3.60611 0
4.21956 -3.60618 0
4.21956 -3.60618 0
4.21969 -3.60611 0
4.23372 -3.58324 0
4.2336 -3.58331 0
4.2336 -3.58331 0
4.23372 -3.58324 0
4.24858 -3.55902 0
4.24846 -3.5591 0
4.24846 -3.5591 0
4.24858 -3.55902 0
4.26492 -3.53241 0
4.2648 -3.53248 0
4.2648 -3.53248 0
4.26492 -3.53241 0
4.28291 -3.50309 0
4.28279 -3.50317 0
4.28279 -3.50317 0
4.28291 -3.50309 0
4.30245 -3.47124 0
4.30233 -3.47133 0
4.30233 -3.47133 0
4.30245 -3.47124 0
4.32426 -3.4357 0
4.32414 -3.43579 0
4.32414 -3.43579 0
4.32426 -3.4357 0
4.35003 -3.39369 0
4.34993 -3.39379 0
4.34993 -3.39379 0
4.35003 -3.39369 0
4.38223 -3.34123 0
4.38213 -3.34132 0
4.38213 -3.34132 0
4.38223 -3.34123 0
4.4153 -3.28009 0
4.4152 -3.28019 0
4.4152 -3.28019 0
4.4153 -3.28009 0
4.44752 -3.20897 0
4.44745 -3.20909 0
4.44745 -3.20909 0
4.44752 -3.20897 0
4.44785 -3.20826 0
4.44777 -3.20838 0
4.09563 -3.80829 0
4.10825 -3.80315 0
4.10829 -3.80307 0
4.09567 -3.80822 0
4.09567 -3.80822 0
4.10829 -3.80307 0
4.11303 -3.79537 0
4.10037 -3.80056 0
4.10037 -3.80056 0
4.11303 -3.79537 0
4.11791 -3.78743 0
4.10521 -3.79268 0
4.10521 -3.79268 0
4.11791 -3.78743 0
4.12273 -3.77957 0
4.10997 -3.78492 0
4.10997 -3.78492 0
4.12273 -3.77957 0
4.12744 -3.77174 0
4.11466 -3.77728 0
4.11466 -3.77728 0
4.12744 -3.77174 0
4.13197 -3.7645 0
4.11907 -3.7701 0
4.11907 -3.7701 0
4.13197 -3.7645 0
4.1359 -3.75827 0
4.12285 -3.76393 0
4.12285 -3.76393 0
4.1359 -3.75827 0
4.13907 -3.75332 0
4.12584 -3.75907 0
4.12584 -3.75907 0
4.13907 -3.75332 0
4.14137 -3.74974 0
4.128 -3.75553 0
4.128 -3.75553 0
4.14137 -3.74974 0
4.14703 -3.74071 0
4.13354 -3.74651 0
4.13354 -3.74651 0
4.14703 -3.74071 0
4.15325 -3.73004 0
4.13994 -3.73607 0
4.13994 -3.73607 0
4.15325 -3.73004 0
4.1605 -3.71807 0
4.14728 -3.72412 0
4.14728 -3.72412 0
4.1605 -3.71807 0
4.16841 -3.70502 0
4.15527 -3.7111 0
4.15527 -3.7111 0
4.16841 -3.70502 0
4.17684 -3.69085 0
4.16384 -3.69712 0
4.16384 -3.69712 0
4.17684 -3.69085 0
4.18645 -3.67507 0
4.17351 -3.68136 0
4.17351 -3.68136 0
4.18645 -3.67507 0
4.19665 -3.65833 0
4.18378 -3.66464 0
4.18378 -3.66464 0
4.19665 -3.65833 0
4.20748 -3.64008 0
4.1948 -3.64668 0
4.1948 -3.64668 0
4.20748 -3.64008 0
4.21953 -3.62032 0
4.20691 -3.62694 0
4.20691 -3.62694 0
4.21953 -3.62032 0
4.23211 -3.59922 0
4.21969 -3.60611 0
4.21969 -3.60611 0
4.23211 -3.59922 0
4.24604 -3.57627 0
4.23372 -3.58324 0
4.23372 -3.58324 0
4.24604 -3.57627 0
4.26065 -3.55169 0
4.24858 -3.55902 0
4.24858 -3.55902 0
4.26065 -3.55169 0
4.27694 -3.52508 0
4.26492 -3.53241 0
4.26492 -3.53241 0
4.27694 -3.52508 0
4.29461 -3.49536 0
4.28291 -3.50309 0
4.28291 -3.50309 0
4.29461 -3.49536 0
4.31377 -3.46304 0
4.30245 -3.47124 0
4.30245 -3.47124 0
4.31377 -3.46304 0
4.33517 -3.42704 0
4.32426 -3.4357 0
4.32426 -3.4357 0
4.33517 -3.42704 0
4.36043 -3.38451 0
4.35003 -3.39369 0
4.35003 -3.39369 0
4.36043 -3.38451 0
4.39201 -3.33151 0
4.38223 -3.34123 0
4.38223 -3.34123 0
4.39201 -3.33151 0
4.42441 -3.26984 0
4.4153 -3.28009 0
4.4153 -3.28009 0
4.42441 -3.26984 0
4.45519 -3.19759 0
4.44752 -3.20897 0
4.44752 -3.20897 0
4.45519 -3.19759 0
4.4555 -3.19687 0
4.44785 -3.20826 0
4.10825 -3.80315 0
4.12759 -3.79526 0
4.12763 -3.79519 0
4.10829 -3.80307 0
4.10829 -3.80307 0
4.12763 -3.79519 0
4.13243 -3.78741 0
4.11303 -3.79537 0
4.11303 -3.79537 0
4.13243 -3.78741 0
4.13739 -3.77937 0
4.11791 -3.78743 0
4.11791 -3.78743 0
4.13739 -3.77937 0
4.14223 -3.77124 0
4.12273 -3.77957 0
4.12273 -3.77957 0
4.14223 -3.77124 0
4.1471 -3.76336 0
4.12744 -3.77174 0
4.12744 -3.77174 0
4.1471 -3.76336 0
4.1518 -3.75604 0
4.13197 -3.7645 0
4.13197 -3.7645 0
4.1518 -3.75604 0
4.15593 -3.7497 0
4.1359 -3.75827 0
4.1359 -3.75827 0
4.15593 -3.7497 0
4.15937 -3.7446 0
4.13907 -3.75332 0
4.13907 -3.75332 0
4.15937 -3.7446 0
4.16187 -3.74093 0
4.14137 -3.74974 0
4.14137 -3.74974 0
4.16187 -3.74093 0
4.16751 -3.73156 0
4.14703 -3.74071 0
4.14703 -3.74071 0
4.16751 -3.73156 0
4.17357 -3.72083 0
4.15325 -3.73004 0
4.15325 -3.73004 0
4.17357 -3.72083 0
4.18072 -3.70887 0
4.1605 -3.71807 0
4.1605 -3.71807 0
4.18072 -3.70887 0
4.18856 -3.69588 0
4.16841 -3.70502 0
4.16841 -3.70502 0
4.18856 -3.69588 0
4.19673 -3.68133 0
4.17684 -3.69085 0
4.17684 -3.69085 0
4.19673 -3.68133 0
4.20621 -3.66548 0
4.18645 -3.67507 0
4.18645 -3.67507 0
4.20621 -3.66548 0
4.21622 -3.64852 0
4.19665 -3.65833 0
4.19665 -3.65833 0
4.21622 -3.64852 0
4.22685 -3.63004 0
4.20748 -3.64008 0
4.20748 -3.64008 0
4.22685 -3.63004 0
4.23883 -3.6103 0
4.21953 -3.62032 0
4.21953 -3.62032 0
4.23883 -3.6103 0
4.25106 -3.58869 0
4.23211 -3.59922 0
4.23211 -3.59922 0
4.25106 -3.58869 0
4.26486 -3.56563 0
4.24604 -3.57627 0
4.24604 -3.57627 0
4.26486 -3.56563 0
4.27907 -3.54052 0
4.26065 -3.55169 0
4.26065 -3.55169 0
4.27907 -3.54052 0
4.29495 -3.51339 0
4.27694 -3.52508 0
4.27694 -3.52508 0
4.29495 -3.51339 0
4.31248 -3.48357 0
4.29461 -3.49536 0
4.29461 -3.49536 0
4.31248 -3.48357 0
4.33105 -3.45053 0
4.31377 -3.46304 0
4.31377 -3.46304 0
4.33105 -3.45053 0
4.35178 -3.41379 0
4.33517 -3.42704 0
4.33517 -3.42704 0
4.35178 -3.41379 0
4.37628 -3.37052 0
4.36043 -3.38451 0
4.36043 -3.38451 0
4.37628 -3.37052 0
4.40687 -3.31668 0
4.39201 -3.33151 0
4.39201 -3.33151 0
4.40687 -3.31668 0
4.43752 -3.2536 0
4.42441 -3.26984 0
4.42441 -3.26984 0
4.43752 -3.2536 0
4.46686 -3.18026 0
4.45519 -3.19759 0
4.45519 -3.19759 0
4.46686 -3.18026 0
4.46716 -3.17953 0
4.4555 -3.19687 0
4.12759 -3.79526 0
4.1551 -3.7843 0
4.15515 -3.78422 0
4.12763 -3.79519 0
4.12763 -3.79519 0
4.15515 -3.78422 0
4.16 -3.77622 0
4.13243 -3.78741 0
4.13243 -3.78741 0
4.16 -3.77622 0
4.16498 -3.76786 0
4.13739 -3.77937 0
4.13739 -3.77937 0
4.16498 -3.76786 0
4.16997 -3.75958 0
4.14223 -3.77124 0
4.14223 -3.77124 0
4.16997 -3.75958 0
4.17501 -3.75155 0
4.1471 -3.76336 0
4.1471 -3.76336 0
4.17501 -3.75155 0
4.17994 -3.74412 0
4.1518 -3.75604 0
4.1518 -3.75604 0
4.17994 -3.74412 0
4.18434 -3.73764 0
4.15593 -3.7497 0
4.15593 -3.7497 0
4.18434 -3.73764 0
4.18804 -3.73216 0
4.15937 -3.7446 0
4.15937 -3.7446 0
4.18804 -3.73216 0
4.19084 -3.72818 0
4.16187 -3.74093 0
4.16187 -3.74093 0
4.19084 -3.72818 0
4.19637 -3.71871 0
4.16751 -3.73156 0
4.16751 -3.73156 0
4.19637 -3.71871 0
4.20226 -3.70801 0
4.17357 -3.72083 0
4.17357 -3.72083 0
4.20226 -3.70801 0
4.20924 -3.69603 0
4.18072 -3.70887 0
4.18072 -3.70887 0
4.20924 -3.69603 0
4.21669 -3.6825 0
4.18856 -3.69588 0
4.18856 -3.69588 0
4.21669 -3.6825 0
4.22473 -3.66796 0
4.19673 -3.68133 0
4.19673 -3.68133 0
4.22473 -3.66796 0
4.23409 -3.65212 0
4.20621 -3.66548 0
4.20621 -3.66548 0
4.23409 -3.65212 0
4.24369 -3.63456 0
4.21622 -3.64852 0
4.21622 -3.64852 0
4.24369 -3.63456 0
4.25413 -3.61595 0
4.22685 -3.63004 0
4.22685 -3.63004 0
4.25413 -3.61595 0
4.26564 -3.59555 0
4.23883 -3.6103 0
4.23883 -3.6103 0
4.26564 -3.59555 0
4.27773 -3.5739 0
4.25106 -3.58869 0
4.25106 -3.58869 0
4.27773 -3.5739 0
4.29097 -3.55009 0
4.26486 -3.56563 0
4.26486 -3.56563 0
4.29097 -3.55009 0
4.30499 -3.52484 0
4.27907 -3.54052 0
4.27907 -3.54052 0
4.30499 -3.52484 0
4.32016 -3.4968 0
4.29495 -3.51339 0
4.29495 -3.51339 0
4.32016 -3.4968 0
4.33705 -3.46624 0
4.31248 -3.48357 0
4.31248 -3.48357 0
4.33705 -3.46624 0
4.35512 -3.43271 0
4.33105 -3.45053 0
4.33105 -3.45053 0
4.35512 -3.43271 0
4.37506 -3.39515 0
4.35178 -3.41379 0
4.35178 -3.41379 0
4.37506 -3.39515 0
4.39842 -3.35079 0
4.37628 -3.37052 0
4.37628 -3.37052 0
4.39842 -3.35079 0
4.42691 -3.29518 0
4.40687 -3.31668 0
4.40687 -3.31668 0
4.42691 -3.29518 0
4.45545 -3.23054 0
4.43752 -3.2536 0
4.43752 -3.2536 0
4.45545 -3.23054 0
4.48148 -3.155 0
4.46686 -3.18026 0
4.46686 -3.18026 0
4.48148 -3.155 0
4.48174 -3.15425 0
4.46716 -3.17953 0
4.1551 -3.7843 0
4.19232 -3.76919 0
4.19237 -3.76911 0
4.15515 -3.78422 0
4.15515 -3.78422 0
4.19237 -3.76911 0
4.19735 -3.7609 0
4.16 -3.77622 0
4.16 -3.77622 0
4.19735 -3.7609 0
4.20251 -3.75243 0
4.16498 -3.76786 0
4.16498 -3.76786 0
4.20251 -3.75243 0
4.20772 -3.74398 0
4.16997 -3.75958 0
4.16997 -3.75958 0
4.20772 -3.74398 0
4.21297 -3.73574 0
4.17501 -3.75155 0
[...]
CELL_DATA 2280
SCALARS te float
LOOKUP_TABLE default
0.715619
0.77235
0.811031
0.812525
0.787837
0.763288
0.790531
0.864638
0.995863
1.23212
1.29211
1.37374
1.44638
1.59733
1.81046
2.25888
3.22851
4.17534
5.03754
5.78381
5.67474
6.02349
5.84347
5.46649
5.31875
5.00666
4.64324
3.94376
2.84006
3.14803
1.1457
1.22251
1.35444
1.46983
1.57914
1.67628
1.78006
1.92511
2.17516
2.68639
2.97275
3.11825
3.32582
3.65309
4.00658
4.62995
5.51168
6.28569
7.00731
7.48531
7.298
7.45125
7.09556
6.645
6.40513
5.89711
5.32708
4.58082
3.63902
3.63128
1.39091
1.49909
1.58399
1.6526
1.7371
1.83203
2.06039
2.68198
4.51703
15.8741
19.8124
18.4429
16.5197
14.1404
12.3544
11.0352
10.5963
10.3806
10.338
10.3407
9.83963
9.60688
8.99275
8.18919
7.74525
6.90325
6.11638
5.30389
4.40801
3.91504
1.46703
1.5819
1.66345
1.73185
1.85198
2.1184
2.80723
4.79976
10.5205
25.4475
30.5143
28.5131
25.6071
22.2268
19.4084
16.9159
15.3849
14.5414
13.8187
13.3148
12.533
11.7853
10.9601
9.72906
8.93544
7.82463
6.90288
6.04673
5.11046
4.26167
1.51442
1.63663
1.74151
1.85369
2.05573
2.58597
3.98158
8.39106
16.7131
33.2968
39.0896
36.6717
33.0724
29.0411
25.4277
22.0854
19.9728
18.6991
17.4568
16.4805
15.4329
14.1905
13.0144
11.2834
10.0886
8.72694
7.63763
6.70531
5.73234
4.69096
1.57643
1.70856
1.86274
2.03894
2.42603
3.32493
6.0729
12.9676
22.2124
40.1669
46.5766
43.5658
39.3462
34.7558
30.5679
26.8022
24.4824
22.7887
21.0823
19.7699
18.342
16.7567
15.0919
12.9124
11.1962
9.61394
8.36594
7.31406
6.29575
5.14372
1.69227
1.84109
2.04026
2.31903
2.97502
4.6912
9.13675
16.9909
26.9163
46.9149
53.6771
50.1537
45.3528
40.1967
35.5851
31.418
28.9692
26.8157
24.7251
23.0115
21.2584
19.2908
17.1283
14.5502
12.352
10.4596
9.04919
7.87256
6.80694
5.59124
1.74301
1.91125
2.19289
2.6432
3.6575
6.10352
11.2771
19.6358
30.5728
53.7919
60.7074
56.5239
51.2609
45.497
40.464
36.1922
33.3491
30.8448
28.2598
26.2236
24.13
21.7384
19.1524
16.1581
13.5188
11.3428
9.66763
8.3685
7.255
6.01484
1.70145
1.88587
2.19168
2.6883
3.75193
6.27756
11.6881
20.7017
32.9814
61.0192
68.2738
63.02
57.2791
50.9954
45.4619
41.1479
37.6624
34.8411
31.8088
29.3499
26.9357
24.1088
21.0851
17.62
14.6046
12.1324
10.2035
8.78556
7.63075
6.3925
1.4699
1.65331
1.87928
2.18524
2.82327
4.44945
9.19694
19.6073
33.672
68.83
76.6369
70.0475
63.7931
56.8289
50.9022
46.2331
42.1648
38.8276
35.3536
32.45
29.5923
26.3127
22.832
18.9511
15.5604
12.7918
10.6496
9.11606
7.92319
6.68744
1.17989
1.35492
1.50278
1.63674
1.94478
2.73224
5.41373
15.4616
31.2933
77.5406
85.9887
78.2588
71.3119
63.3019
56.9866
51.5019
46.9137
42.7577
38.7859
35.4384
32.003
28.2645
24.3033
20.0463
16.3372
13.3089
10.9996
9.37225
8.14106
6.91069
1.03906
1.23358
1.31316
1.31976
1.33095
1.40044
1.61552
2.36087
5.65758
87.7275
96.6188
88.2169
79.3944
70.7213
63.1663
56.9232
51.4404
46.4128
41.8999
37.9846
33.9886
29.852
25.4694
20.9049
16.9375
13.7144
11.2728
9.57525
8.3085
7.08213
1.11393
1.35666
1.43308
1.43734
1.44373
1.44594
1.45777
1.51984
2.00547
103.801
107.556
97.7456
86.6175
77.1437
68.32
61.2879
54.9958
49.3169
44.3674
39.9536
35.5729
31.1093
26.4135
21.6005
17.4207
14.0465
11.5005
9.74863
8.45431
7.22719
1481.83
1371.12
1159.16
961.319
780.819
620.383
480.884
362.033
265.176
116.762
116.912
106.036
93.3975
83.035
73.3169
65.47
58.5184
52.2696
46.8801
41.9622
37.2363
32.3803
27.3726
22.3021
17.8914
14.3696
11.7214
9.91681
8.59594
7.37269
1481.86
1371.12
1159.16
961.319
780.819
620.383
480.883
362.029
265.043
132.609
125.302
112.479
99.2794
88.0325
78.0575
69.6081
62.3442
55.7437
50.0082
44.6471
39.5626
34.3164
28.908
23.5016
18.7388
15.0011
12.1828
10.2836
8.91525
7.6825
1481.89
1371.12
1159.16
961.319
780.813
620.382
480.883
362.027
264.974
148.303
132.469
117.663
103.869
92.1156
82.0456
73.3175
65.8094
59.0532
53.0143
47.3288
41.9114
36.3509
30.5597
24.7756
19.7357
15.8363
12.9426
10.9665
9.52125
8.32013
1481.91
1371.12
1159.16
961.319
780.813
620.382
480.883
362.026
264.945
162.047
138.619
122.043
107.527
95.3469
85.055
76.1531
68.4469
61.5486
55.2767
49.3758
43.7057
37.8897
31.7882
25.6711
20.41
16.408
13.4685
11.431
9.91669
8.869
1481.91
1371.12
1159.16
961.319
780.813
620.382
480.883
362.026
264.937
172.958
144.598
125.884
110.594
97.9912
87.4338
78.3488
70.4663
63.3956
56.9446
50.8816
45.0224
38.9969
32.6467
26.2626
20.8378
16.7716
13.8071
11.7367
10.1827
9.27313
1481.92
1371.12
1159.16
961.319
780.813
620.383
480.884
362.025
264.941
180.707
149.958
129.315
113.231
100.2
89.3694
80.1
72.03
64.8019
58.2065
52.0095
46.001
39.8114
33.2566
26.6581
21.1044
16.992
14.0176
11.9312
10.3588
9.55325
1481.93
1371.12
1159.16
961.319
780.813
620.383
480.884
362.025
264.953
185.999
154.322
132.278
115.486
102.063
90.9725
81.5181
73.2775
65.9156
59.1997
52.8898
46.7573
40.4321
33.7047
26.9196
21.255
17.1095
14.1333
12.0406
10.4651
9.73625
1481.93
1371.12
1159.16
961.319
780.813
620.383
480.884
362.026
264.971
189.764
157.774
134.764
117.398
103.641
92.3181
82.6963
74.3113
66.8319
60.0116
53.6042
47.3664
40.923
34.0446
27.087
21.3207
17.151
14.1753
12.0829
10.5147
9.84094
1481.93
1371.12
1159.16
961.319
780.813
620.383
480.884
362.026
264.993
192.404
160.389
136.815
119.023
104.993
93.4756
83.7056
75.1938
67.6088
60.6943
54.1999
47.8699
41.3238
34.3088
27.1857
21.3222
17.1279
14.1568
12.0696
10.5126
9.87625
1481.93
1371.12
1159.16
961.319
780.813
620.383
480.885
362.026
265.019
194.398
162.453
138.532
120.426
106.173
94.4888
84.5894
75.965
68.2825
61.2819
54.7086
48.2963
41.6595
34.5187
27.2292
21.2601
17.0376
14.0746
11.9976
10.4589
9.84506
1481.93
1371.12
1159.16
961.319
780.813
620.383
480.885
362.026
265.049
195.999
164.166
140.014
121.667
107.223
95.3925
85.38
76.6538
68.8819
61.8008
55.154
48.6656
41.9441
34.6856
27.2261
21.1263
16.8698
13.9158
11.8538
10.3394
9.73963
1481.93
1371.12
1159.16
961.319
780.813
620.383
480.885
362.027
265.082
197.29
165.583
141.288
122.762
108.17
96.2181
86.1044
77.2844
69.4269
62.2668
55.5499
48.9898
42.1895
34.8202
27.1796
20.9106
16.607
13.6634
11.6247
10.135
9.54206
1481.93
1371.12
1159.16
961.319
780.813
620.383
480.885
362.027
265.119
198.385
166.804
142.414
123.753
109.04
96.9844
86.7794
77.8719
69.9319
62.6944
55.9069
49.2773
42.4054
34.933
27.0904
20.5911
16.2221
13.2862
11.2716
9.812
9.21925
1481.93
1371.12
1159.16
961.319
780.813
620.383
480.885
362.028
265.161
199.342
167.883
143.432
124.665
109.851
97.7056
87.4175
78.4275
70.4069
63.0919
56.2341
49.5376
42.6025
35.0336
26.9572
20.1338
15.6669
12.7357
10.7584
9.33038
8.73506
1481.93
1371.12
1159.16
961.319
780.813
620.383
480.885
362.028
265.206
200.213
168.862
144.373
125.524
110.624
98.4
88.0362
78.9663
70.8625
63.4681
56.5381
49.7791
42.79
35.1321
26.7833
19.4936
14.8691
11.9299
9.99731
8.60962
8.01369
1481.93
1371.12
1159.16
961.319
780.813
620.383
480.885
362.029
265.256
201.021
169.789
145.276
126.361
111.386
99.0881
88.6513
79.5006
71.31
63.8319
56.8293
50.012
42.978
35.2409
26.5737
18.5901
13.6964
10.7253
8.86294
7.55444
6.97275
1481.92
1371.12
1159.16
961.319
780.813
620.383
480.884
362.03
265.313
201.809
170.701
146.176
127.203
112.157
99.7913
89.2806
80.0456
71.7613
64.1944
57.1206
50.2486
43.1798
35.3778
26.3579
17.3108
11.8937
8.84488
7.08631
5.93146
5.4114
1481.91
1371.12
1159.16
961.319
780.813
620.383
480.884
362.031
265.378
202.617
171.639
147.107
128.08
112.967
100.537
89.9462
80.62
72.2331
64.5719
57.4284
50.5057
43.4121
35.571
26.2048
15.5699
9.031
5.85364
4.3551
3.52301
3.15874
1481.89
1371.12
1159.16
961.319
780.819
620.383
480.885
362.033
265.457
203.483
172.646
148.107
129.036
113.86
101.362
90.6819
81.2506
72.7525
64.9912
57.7754
50.8048
43.7004
35.8702
26.2885
13.8562
5.53489
3.14485
2.34066
1.90688
1.66361
1481.87
1371.12
1159.16
961.319
780.819
620.384
480.886
362.036
265.554
204.461
173.778
149.229
130.143
114.908
102.331
91.5394
81.9894
73.3663
65.4925
58.1947
51.186
44.0934
36.3738
27.0572
15.2105
6.08193
3.06008
2.21577
1.81133
1.50545
1481.84
1371.12
1159.16
961.319
780.819
620.384
480.887
362.041
265.677
205.577
175.069
150.564
131.445
116.177
103.512
92.595
82.9038
74.15
66.1412
58.7592
51.7125
44.6856
37.2696
28.9537
20.2259
11.6186
4.10146
2.48134
2.05797
1.44967
1481.8
1371.12
1159.16
961.319
780.819
620.386
480.889
362.048
265.805
206.638
176.31
151.878
132.699
117.394
104.671
93.6531
83.8338
74.9681
66.8538
59.3794
52.3321
45.4083
38.3338
30.9356
23.6335
16.1436
8.051
4.28351
2.96338
2.10129
1481.76
1371.12
1159.16
961.319
780.819
620.387
480.892
362.054
265.899
207.387
177.165
152.744
133.503
118.147
105.357
94.2469
84.3125
75.3594
67.1688
59.6488
52.5876
45.7041
38.8059
31.8308
25.1704
18.7627
12.6791
8.10069
5.3723
4.59898
1481.72
1371.12
1159.16
961.319
780.819
620.388
480.894
362.059
265.963
207.864
177.697
153.269
133.996
118.604
105.771
94.6
84.5994
75.5913
67.3506
59.8014
52.7339
45.883
39.0894
32.3625
26.0724
20.2553
14.9914
10.7083
7.5875
6.77688
1481.68
1371.12
1159.16
961.319
780.819
620.389
480.896
362.064
266.008
208.176
178.049
153.615
134.325
118.908
106.049
94.8394
84.795
75.7481
67.48
59.9113
52.8412
46.0148
39.3074
32.7681
26.754
21.348
16.6386
12.8193
9.87394
9.03381
1481.64
1371.12
1159.16
961.319
780.819
620.39
480.898
362.067
266.042
208.391
178.294
153.856
134.556
119.124
106.25
95.0138
84.9431
75.8681
67.5769
59.9979
52.9291
46.1289
39.4974
33.1146
27.3227
22.2416
17.9781
14.593
12.0091
11.1557
1481.61
1371.12
1159.16
961.325
780.819
620.391
480.899
362.07
266.068
208.544
178.468
154.028
134.721
119.281
106.398
95.1462
85.0575
75.9631
67.6587
60.0718
53.0062
46.2319
39.6694
33.4215
27.8179
23.0053
19.0833
16.0258
13.6971
12.8526
1481.58
1371.12
1159.16
961.325
780.819
620.391
480.9
362.072
266.087
208.649
178.589
154.147
134.836
119.394
106.509
95.2469
85.1462
76.0375
67.7231
60.1326
53.0731
46.3236
39.8243
33.6956
28.2519
23.6474
19.9523
17.1128
14.9447
14.1274
1481.56
1371.12
1159.16
961.325
780.819
620.392
480.901
362.074
266.102
208.716
178.668
154.226
134.915
119.473
106.589
95.3219
85.2125
76.0931
67.7731
60.1813
53.1284
46.4037
39.9619
33.9375
28.6263
24.1784
20.6338
17.9169
15.8503
15.0758
1481.53
1371.12
1159.16
961.325
780.819
620.393
480.902
362.076
266.113
208.755
178.714
154.273
134.963
119.524
106.646
95.375
85.2606
76.1344
67.81
60.2182
53.1728
46.4708
40.0802
34.1461
28.9436
24.6089
21.1641
18.5173
16.5083
15.7701
1481.52
1371.12
1159.16
961.325
780.819
620.393
480.902
362.077
266.119
208.769
178.732
154.293
134.985
119.551
106.679
95.4081
85.2906
76.1594
67.8331
60.2421
53.2045
46.5241
40.1793
34.3218
29.2069
24.9548
21.5726
18.9646
16.9839
16.2758
1481.51
1371.12
1159.16
961.325
780.819
620.393
480.903
362.078
266.124
208.762
178.728
154.289
134.985
119.558
106.694
95.4256
85.3069
76.1713
67.8431
60.2542
53.2243
46.5641
40.2596
34.4668
29.4224
25.2314
21.8887
19.3037
17.3359
16.6538
1481.49
1371.12
1159.16
961.325
780.819
620.393
480.903
362.079
266.124
208.734
178.699
154.261
134.963
119.545
106.691
95.4275
85.3088
76.17
67.8419
60.255
53.2328
46.5908
40.3213
34.5828
29.5955
25.4506
22.1329
19.5596
17.5984
16.9314
1481.49
1371.12
1159.16
961.325
780.819
620.393
480.904
362.079
266.123
208.682
178.644
154.208
134.918
119.512
106.673
95.415
85.2981
76.1581
67.8294
60.2448
53.2301
46.6041
40.3649
34.6722
29.7301
25.6194
22.3191
19.7525
17.7929
17.1322
1481.49
1371.12
1159.16
961.325
780.819
620.393
480.904
362.079
266.119
208.603
178.561
154.127
134.846
119.457
106.636
95.3881
85.275
76.1331
67.8044
60.2226
53.2154
46.6048
40.3915
34.7365
29.8309
25.7454
22.459
19.8954
17.9348
17.2747
1481.49
1371.12
1159.16
961.325
780.819
620.394
480.904
362.079
266.111
208.493
178.442
154.012
134.746
119.378
106.58
95.3456
85.2375
76.095
67.7669
60.1879
53.1885
46.5926
40.4021
34.7785
29.9019
25.8363
22.5605
19.9994
18.0359
17.3703
1481.49
1371.12
1159.16
961.325
780.819
620.393
480.904
362.079
266.101
208.346
178.283
153.859
134.611
119.271
106.503
95.2862
85.1856
76.0431
67.715
60.1393
53.1479
46.5664
40.3974
34.8002
29.9473
25.8968
22.6289
20.0698
18.1013
17.4267
1481.49
1371.12
1159.16
961.325
780.819
620.393
480.904
362.079
266.088
208.154
178.075
153.659
134.436
119.132
106.402
95.2075
85.1169
75.975
67.6481
60.0756
53.0923
46.5252
40.3774
34.8035
29.9692
25.9314
22.6687
20.1118
18.1361
17.4473
1481.5
1371.12
1159.16
961.325
780.819
620.393
480.903
362.078
266.072
207.904
177.804
153.401
134.214
118.956
106.274
95.1069
85.03
75.8894
67.5637
59.9948
53.0194
46.4665
40.3393
34.7883
29.9699
25.9425
22.6838
20.1279
18.1452
17.4356
1481.51
1371.12
1159.16
961.325
780.819
620.393
480.902
362.077
266.053
207.581
177.454
153.072
133.931
118.733
106.111
94.9806
84.9206
75.7825
67.4594
59.8935
52.9262
46.3878
40.2813
34.7522
29.95
25.9302
22.6747
20.12
18.1291
17.389
1481.53
1371.12
1159.16
961.325
780.819
620.393
480.902
362.076
266.029
207.165
177.001
152.653
133.574
118.455
105.909
94.8238
84.7856
75.6506
67.33
59.7679
52.8091
46.2847
40.1982
34.6912
29.9049
25.8923
22.6389
20.086
18.0852
17.3058
1481.54
1371.12
1159.16
961.325
780.819
620.392
480.901
362.074
266.002
206.626
176.42
152.115
133.123
118.108
105.656
94.6281
84.6181
75.4869
67.17
59.6126
52.6631
46.1528
40.0858
34.6003
29.8303
25.8239
22.5718
20.0209
18.0096
17.1821
1481.56
1371.12
1159.16
961.325
780.819
620.392
480.9
362.073
265.97
205.906
175.653
151.404
132.529
117.657
105.337
94.3825
84.41
75.2831
66.9737
59.4199
52.4801
45.9844
39.9366
34.4715
29.7172
25.7164
22.465
19.918
17.8943
17.0005
1481.59
1371.12
1159.16
961.325
780.819
620.391
480.899
362.071
265.932
204.887
174.582
150.444
131.751
117.077
104.933
94.0763
84.1525
75.0306
66.7275
59.179
52.2503
45.7693
39.7352
34.2907
29.5503
25.5527
22.301
19.7609
17.7326
16.7465
1481.62
1371.12
1159.16
961.325
780.819
620.391
480.898
362.068
265.886
203.346
173.001
149.079
130.688
116.302
104.403
93.6769
83.8188
74.7062
66.4125
58.8649
51.9461
45.4829
39.4695
34.0428
29.3132
25.3158
22.0603
19.5328
17.5068
16.3946
1481.65
1371.12
1159.16
961.319
780.819
620.389
480.896
362.065
265.831
201.004
170.658
147.115
129.198
115.248
103.699
93.1525
83.3838
74.2794
65.9963
58.4382
51.5273
45.0799
39.0878
33.6859
28.971
24.9776
21.7146
19.2046
17.1925
15.9179
1481.69
1371.12
1159.16
961.319
780.819
620.389
480.894
362.061
265.764
196.586
166.445
143.808
126.88
113.723
102.706
92.415
82.7738
73.6813
65.4188
57.8473
50.94
44.5082
38.5333
33.1588
28.4627
24.4766
21.1871
18.6966
16.7366
15.2553
1481.74
1371.12
1159.16
961.319
780.819
620.388
480.892
362.056
265.679
188.843
159.472
138.314
123.115
111.266
101.135
91.2537
81.815
72.7556
64.5681
56.9984
50.0671
43.6576
37.7039
32.3546
27.6741
23.6758
20.3222
17.8948
16.0641
14.3758
1481.78
1371.12
1159.16
961.319
780.819
620.386
480.889
362.05
265.569
167.584
148.924
130.486
117.298
107.231
98.5206
89.2794
80.2375
71.3456
63.2081
55.6216
48.7052
42.2942
36.4191
31.0915
26.4469
22.4228
18.8618
16.4562
14.5956
13.1998
1481.81
1371.12
1159.16
961.319
780.819
620.384
480.886
362.042
265.423
152.218
137.613
122.193
110.216
101.486
94.5263
86.5081
77.9963
69.3094
61.3443
53.8177
47.0371
40.6763
35.0162
29.7279
25.2463
21.2631
17.7487
15.6658
14.179
12.9371
1.21995
1.47886
1.61101
1.68394
1.81694
2.17348
3.13094
6.76113
31.316
143.975
126.403
112.588
101.752
94.6419
89.7356
83.2212
75.62
67.2956
59.7149
52.3514
45.7426
39.5242
34.0518
28.9361
24.5811
20.6901
17.2449
15.3847
14.0503
12.8611
1.43396
1.68143
1.95109
2.25294
2.88473
4.66488
11.3002
24.9709
45.0129
126.011
110.069
99.8062
91.3469
85.7719
83.7519
78.805
72.255
64.6581
57.4694
50.3714
44.1136
38.1456
32.968
28.0383
23.8754
20.1373
16.7898
15.1549
13.944
12.7903
1.89458
2.13698
2.50686
3.08109
4.37018
7.53281
15.2898
28.0388
46.3708
106.797
95.0219
86.0456
79.2831
75.6106
74.9762
72.6206
67.6844
60.9594
54.5516
47.9389
41.9416
36.4737
31.5571
26.9566
23.0088
19.5241
16.3172
14.9348
13.83
12.7203
2.0789
2.29248
2.68459
3.34619
4.74324
8.1
15.8587
28.0175
44.7267
90.9963
81.1706
74.1219
68.8338
66.5631
67.0088
66.3019
63.1156
57.3038
51.6519
45.3358
39.6897
34.5166
29.9424
25.7322
21.9731
18.8054
15.7953
14.6943
13.7052
12.6416
2.30445
2.50248
2.9993
3.90368
5.7248
9.50594
16.4307
27.1608
41.741
76.4306
70.39
64.9075
60.6761
59.0861
60.2295
60.8088
58.7794
53.9881
49.0294
43.0093
37.4252
32.4774
28.2271
24.3763
20.8892
17.9871
15.2228
14.4226
13.5439
12.5468
2.33489
2.50706
2.98834
3.86781
5.71898
9.42775
15.6562
25.2545
37.8776
64.9988
61.7333
57.3221
53.7049
52.5567
54.1345
55.7518
54.8954
50.8401
46.5755
40.8503
35.2964
30.6346
26.5558
23.0148
19.7648
17.0939
14.6013
14.0869
13.335
12.4396
2.18478
2.33016
2.6889
3.34661
4.83202
8.05619
13.8351
22.5608
33.6124
55.7231
54.0193
50.4377
47.2874
46.5235
48.3853
50.9699
51.2519
47.9853
44.3346
38.886
33.3773
28.9187
25.0323
21.7248
18.7632
16.1619
13.9352
13.6639
13.0628
12.3396
2.02016
2.14482
2.40726
2.85344
3.83122
6.14462
11.1923
19.2589
29.0885
47.5018
46.6049
43.7426
41.0545
40.5911
42.8248
46.3768
47.9238
45.5324
42.4096
37.1821
31.6188
27.4084
23.7689
20.5701
17.8532
15.3423
13.2315
13.1356
12.7487
12.2994
1.90817
2.02211
2.2178
2.52626
3.09704
4.55579
8.41
15.6674
24.426
39.6551
39.152
36.8893
34.6823
34.5568
37.2715
42.1699
45.0297
43.5224
40.9071
35.823
30.3337
26.1963
22.7224
19.5757
17.0153
14.5717
12.5077
12.6995
12.4379
12.3315
1.84404
1.94577
2.09707
2.29522
2.68563
3.58477
6.00507
11.9153
19.4451
31.5279
31.1536
29.3776
27.8413
28.1784
31.6997
38.6058
42.8244
42.0843
39.8157
34.8883
29.4866
25.3112
21.8984
18.8163
16.3634
13.8502
11.7848
12.2794
12.1716
12.4215
1.67826
1.77096
1.91343
2.07469
2.31291
2.8076
4.1127
8.02988
13.6553
21.6054
21.1608
20.2385
19.7356
21.0555
26.2169
35.9486
41.4156
41.1789
39.1345
34.3068
28.974
24.714
21.3374
18.2429
15.8374
13.1855
11.0916
11.9064
11.9534
12.5532
1.31903
1.38027
1.51768
1.67351
1.86483
2.14162
2.63241
3.48552
4.49547
5.51701
5.23429
5.95434
7.81781
12.2371
21.2936
34.3088
40.6629