# vtk DataFile Version 2.0
b2 grid
ASCII

DATASET UNSTRUCTURED_GRID
POINTS 3872 float
0.210971 -1.40135 0
0.211305 -1.40129 0
0.211305 -1.40115 0
0.210971 -1.40122 0
0.210971 -1.40122 0
0.211305 -1.40115 0
0.211304 -1.38773 0
0.210965 -1.38781 0
0.210965 -1.38781 0
0.211304 -1.38773 0
0.211304 -1.37627 0
0.21096 -1.37637 0
0.21096 -1.37637 0
0.211304 -1.37627 0
0.211304 -1.36634 0
0.210957 -1.36646 0
0.210957 -1.36646 0
0.211304 -1.36634 0
0.211304 -1.35766 0
0.210954 -1.3578 0
0.210954 -1.3578 0
0.211304 -1.35766 0
0.211304 -1.34993 0
0.210952 -1.35009 0
0.210952 -1.35009 0
0.211304 -1.34993 0
0.211304 -1.34307 0
0.21095 -1.34324 0
0.21095 -1.34324 0
0.211304 -1.34307 0
0.211304 -1.33663 0
0.210948 -1.33681 0
0.210948 -1.33681 0
0.211304 -1.33663 0
0.211303 -1.3307 0
0.210946 -1.3309 0
0.210946 -1.3309 0
0.211303 -1.3307 0
0.211303 -1.32482 0
0.210943 -1.32503 0
0.210943 -1.32503 0
0.211303 -1.32482 0
0.211303 -1.31882 0
0.210936 -1.31905 0
0.210936 -1.31905 0
0.211303 -1.31882 0
0.211303 -1.31563 0
0.210943 -1.31586 0
0.210943 -1.31586 0
0.211303 -1.31563 0
0.211303 -1.31237 0
0.21095 -1.31262 0
0.21095 -1.31262 0
0.211303 -1.31237 0
0.211303 -1.30853 0
0.210954 -1.30878 0
0.210954 -1.30878 0
0.211303 -1.30853 0
0.211303 -1.30435 0
0.210959 -1.3046 0
0.210959 -1.3046 0
0.211303 -1.30435 0
0.211303 -1.29969 0
0.210966 -1.29995 0
0.210966 -1.29995 0
0.211303 -1.29969 0
0.211303 -1.29411 0
0.210972 -1.29437 0
0.210972 -1.29437 0
0.211303 -1.29411 0
0.211303 -1.2873 0
0.210979 -1.28757 0
0.210979 -1.28757 0
0.211303 -1.2873 0
0.211304 -1.27927 0
0.210987 -1.27955 0
0.210987 -1.27955 0
0.211304 -1.27927 0
0.211304 -1.26915 0
0.210997 -1.26944 0
0.210997 -1.26944 0
0.211304 -1.26915 0
0.211304 -1.25653 0
0.211007 -1.25683 0
0.211007 -1.25683 0
0.211304 -1.25653 0
0.211304 -1.25641 0
0.211007 -1.25671 0
0.211305 -1.40129 0
0.244676 -1.3949 0
0.244682 -1.39474 0
0.211305 -1.40115 0
0.211305 -1.40115 0
0.244682 -1.39474 0
0.24525 -1.37936 0
0.211304 -1.38773 0
0.211304 -1.38773 0
0.24525 -1.37936 0
0.245682 -1.36598 0
0.211304 -1.37627 0
0.211304 -1.37627 0
0.245682 -1.36598 0
0.246008 -1.35423 0
0.211304 -1.36634 0
0.211304 -1.36634 0
0.246008 -1.35423 0
0.246286 -1.34389 0
0.211304 -1.35766 0
0.211304 -1.35766 0
0.246286 -1.34389 0
0.246463 -1.3345 0
0.211304 -1.34993 0
0.211304 -1.34993 0
0.246463 -1.3345 0
0.246639 -1.32609 0
0.211304 -1.34307 0
0.211304 -1.34307 0
0.246639 -1.32609 0
0.246813 -1.31818 0
0.211304 -1.33663 0
0.211304 -1.33663 0
0.246813 -1.31818 0
0.247033 -1.31076 0
0.211303 -1.3307 0
0.211303 -1.3307 0
0.247033 -1.31076 0
0.247337 -1.30322 0
0.211303 -1.32482 0
0.211303 -1.32482 0
0.247337 -1.30322 0
0.248039 -1.29545 0
0.211303 -1.31882 0
0.211303 -1.31882 0
0.248039 -1.29545 0
0.247296 -1.2918 0
0.211303 -1.31563 0
0.211303 -1.31563 0
0.247296 -1.2918 0
0.246646 -1.28803 0
0.211303 -1.31237 0
0.211303 -1.31237 0
0.246646 -1.28803 0
0.24621 -1.28387 0
0.211303 -1.30853 0
0.211303 -1.30853 0
0.24621 -1.28387 0
0.245704 -1.27922 0
0.211303 -1.30435 0
0.211303 -1.30435 0
0.245704 -1.27922 0
0.245036 -1.27384 0
0.211303 -1.29969 0
0.211303 -1.29969 0
0.245036 -1.27384 0
0.244449 -1.26764 0
0.211303 -1.29411 0
0.211303 -1.29411 0
0.244449 -1.26764 0
0.243749 -1.26008 0
0.211303 -1.2873 0
0.211303 -1.2873 0
0.243749 -1.26008 0
0.242952 -1.25117 0
0.211304 -1.27927 0
0.211304 -1.27927 0
0.242952 -1.25117 0
0.242007 -1.24005 0
0.211304 -1.26915 0
0.211304 -1.26915 0
0.242007 -1.24005 0
0.240973 -1.22634 0
0.211304 -1.25653 0
0.211304 -1.25653 0
0.240973 -1.22634 0
0.240963 -1.2262 0
0.211304 -1.25641 0
0.244676 -1.3949 0
0.291425 -1.37887 0
0.291435 -1.37869 0
0.244682 -1.39474 0
0.244682 -1.39474 0
0.291435 -1.37869 0
0.292358 -1.36131 0
0.24525 -1.37936 0
0.24525 -1.37936 0
0.292358 -1.36131 0
0.293042 -1.34589 0
0.245682 -1.36598 0
0.245682 -1.36598 0
0.293042 -1.34589 0
0.293542 -1.33214 0
0.246008 -1.35423 0
0.246008 -1.35423 0
0.293542 -1.33214 0
0.293912 -1.31978 0
0.246286 -1.34389 0
0.246286 -1.34389 0
0.293912 -1.31978 0
0.29424 -1.30862 0
0.246463 -1.3345 0
0.246463 -1.3345 0
0.29424 -1.30862 0
0.294563 -1.29839 0
0.246639 -1.32609 0
0.246639 -1.32609 0
0.294563 -1.29839 0
0.294905 -1.28871 0
0.246813 -1.31818 0
0.246813 -1.31818 0
0.294905 -1.28871 0
0.295376 -1.27951 0
0.247033 -1.31076 0
0.247033 -1.31076 0
0.295376 -1.27951 0
0.295808 -1.27033 0
0.247337 -1.30322 0
0.247337 -1.30322 0
0.295808 -1.27033 0
0.295629 -1.26146 0
0.248039 -1.29545 0
0.248039 -1.29545 0
0.295629 -1.26146 0
0.294171 -1.25758 0
0.247296 -1.2918 0
0.247296 -1.2918 0
0.294171 -1.25758 0
0.292848 -1.25353 0
0.246646 -1.28803 0
0.246646 -1.28803 0
0.292848 -1.25353 0
0.291724 -1.24898 0
0.24621 -1.28387 0
0.24621 -1.28387 0
0.291724 -1.24898 0
0.290471 -1.24375 0
0.245704 -1.27922 0
0.245704 -1.27922 0
0.290471 -1.24375 0
0.289136 -1.23787 0
0.245036 -1.27384 0
0.245036 -1.27384 0
0.289136 -1.23787 0
0.287658 -1.23091 0
0.244449 -1.26764 0
0.244449 -1.26764 0
0.287658 -1.23091 0
0.286022 -1.2226 0
0.243749 -1.26008 0
0.243749 -1.26008 0
0.286022 -1.2226 0
0.28403 -1.21267 0
0.242952 -1.25117 0
0.242952 -1.25117 0
0.28403 -1.21267 0
0.281798 -1.20055 0
0.242007 -1.24005 0
0.242007 -1.24005 0
0.281798 -1.20055 0
0.279075 -1.18557 0
0.240973 -1.22634 0
0.240973 -1.22634 0
0.279075 -1.18557 0
0.279047 -1.18542 0
0.240963 -1.2262 0
0.291425 -1.37887 0
0.359314 -1.34809 0
0.359323 -1.3479 0
0.291435 -1.37869 0
0.291435 -1.37869 0
0.359323 -1.3479 0
0.360157 -1.32887 0
0.292358 -1.36131 0
0.292358 -1.36131 0
0.360157 -1.32887 0
0.360673 -1.31156 0
0.293042 -1.34589 0
0.293042 -1.34589 0
0.360673 -1.31156 0
0.360968 -1.29586 0
0.293542 -1.33214 0
0.293542 -1.33214 0
0.360968 -1.29586 0
0.361116 -1.28158 0
0.293912 -1.31978 0
0.293912 -1.31978 0
0.361116 -1.28158 0
0.361129 -1.2685 0
0.29424 -1.30862 0
0.29424 -1.30862 0
0.361129 -1.2685 0
0.361029 -1.25648 0
0.294563 -1.29839 0
0.294563 -1.29839 0
0.361029 -1.25648 0
0.36078 -1.24535 0
0.294905 -1.28871 0
0.294905 -1.28871 0
0.36078 -1.24535 0
0.360204 -1.23496 0
0.295376 -1.27951 0
0.295376 -1.27951 0
0.360204 -1.23496 0
0.358849 -1.22505 0
0.295808 -1.27033 0
0.295808 -1.27033 0
0.358849 -1.22505 0
0.356234 -1.216 0
0.295629 -1.26146 0
0.295629 -1.26146 0
0.356234 -1.216 0
0.353683 -1.21185 0
0.294171 -1.25758 0
0.294171 -1.25758 0
0.353683 -1.21185 0
0.351301 -1.20749 0
0.292848 -1.25353 0
0.292848 -1.25353 0
0.351301 -1.20749 0
0.349095 -1.2026 0
0.291724 -1.24898 0
0.291724 -1.24898 0
0.349095 -1.2026 0
0.346732 -1.19689 0
0.290471 -1.24375 0
0.290471 -1.24375 0
0.346732 -1.19689 0
0.34423 -1.19043 0
0.289136 -1.23787 0
0.289136 -1.23787 0
0.34423 -1.19043 0
0.341364 -1.18278 0
0.287658 -1.23091 0
0.287658 -1.23091 0
0.341364 -1.18278 0
0.338137 -1.17374 0
0.286022 -1.2226 0
0.286022 -1.2226 0
0.338137 -1.17374 0
0.33417 -1.16286 0
0.28403 -1.21267 0
0.28403 -1.21267 0
0.33417 -1.16286 0
0.329483 -1.14976 0
0.281798 -1.20055 0
0.281798 -1.20055 0
0.329483 -1.14976 0
0.323715 -1.13379 0
0.279075 -1.18557 0
0.279075 -1.18557 0
0.323715 -1.13379 0
0.323658 -1.13363 0
0.279047 -1.18542 0
0.359314 -1.34809 0
0.453198 -1.30944 0
0.453201 -1.30923 0
0.359323 -1.3479 0
0.359323 -1.3479 0
0.453201 -1.30923 0
0.453487 -1.28832 0
0.360157 -1.32887 0
0.360157 -1.32887 0
0.453487 -1.28832 0
0.453266 -1.26897 0
0.360673 -1.31156 0
0.360673 -1.31156 0
0.453266 -1.26897 0
0.452569 -1.25113 0
0.360968 -1.29586 0
0.360968 -1.29586 0
0.452569 -1.25113 0
0.451434 -1.23471 0
0.361116 -1.28158 0
0.361116 -1.28158 0
0.451434 -1.23471 0
0.44987 -1.2196 0
0.361129 -1.2685 0
0.361129 -1.2685 0
0.44987 -1.2196 0
0.447858 -1.2057 0
0.361029 -1.25648 0
0.361029 -1.25648 0
0.447858 -1.2057 0
0.445339 -1.19285 0
0.36078 -1.24535 0
0.36078 -1.24535 0
0.445339 -1.19285 0
0.442182 -1.18093 0
0.360204 -1.23496 0
0.360204 -1.23496 0
0.442182 -1.18093 0
0.438153 -1.16975 0
0.358849 -1.22505 0
0.358849 -1.22505 0
0.438153 -1.16975 0
0.432805 -1.15913 0
0.356234 -1.216 0
0.356234 -1.216 0
0.432805 -1.15913 0
0.42895 -1.15408 0
0.353683 -1.21185 0
0.353683 -1.21185 0
0.42895 -1.15408 0
0.424906 -1.14886 0
0.351301 -1.20749 0
0.351301 -1.20749 0
0.424906 -1.14886 0
0.420795 -1.14331 0
0.349095 -1.2026 0
0.349095 -1.2026 0
0.420795 -1.14331 0
0.416314 -1.13701 0
0.346732 -1.19689 0
0.346732 -1.19689 0
0.416314 -1.13701 0
0.411342 -1.12983 0
0.34423 -1.19043 0
0.34423 -1.19043 0
0.411342 -1.12983 0
0.405677 -1.12154 0
0.341364 -1.18278 0
0.341364 -1.18278 0
0.405677 -1.12154 0
0.399062 -1.11183 0
0.338137 -1.17374 0
0.338137 -1.17374 0
0.399062 -1.11183 0
0.39112 -1.10041 0
0.33417 -1.16286 0
0.33417 -1.16286 0
0.39112 -1.10041 0
0.381636 -1.08703 0
0.329483 -1.14976 0
0.329483 -1.14976 0
0.381636 -1.08703 0
0.370123 -1.07127 0
0.323715 -1.13379 0
0.323715 -1.13379 0
0.370123 -1.07127 0
0.370008 -1.07112 0
0.323658 -1.13363 0
0.453198 -1.30944 0
0.545081 -1.29164 0
0.545105 -1.2914 0
0.453201 -1.30923 0
0.453201 -1.30923 0
0.545105 -1.2914 0
0.547523 -1.26803 0
0.453487 -1.28832 0
0.453487 -1.28832 0
0.547523 -1.26803 0
0.549235 -1.24554 0
0.453266 -1.26897 0
0.453266 -1.26897 0
0.549235 -1.24554 0
0.550246 -1.22405 0
0.452569 -1.25113 0
0.452569 -1.25113 0
0.550246 -1.22405 0
0.550558 -1.20363 0
0.451434 -1.23471 0
0.451434 -1.23471 0
0.550558 -1.20363 0
0.550087 -1.18387 0
0.44987 -1.2196 0
0.44987 -1.2196 0
0.550087 -1.18387 0
0.548778 -1.16484 0
0.447858 -1.2057 0
0.447858 -1.2057 0
0.548778 -1.16484 0
0.546485 -1.14629 0
0.445339 -1.19285 0
0.445339 -1.19285 0
0.546485 -1.14629 0
0.54291 -1.12794 0
0.442182 -1.18093 0
[...]
CELL_DATA 968
SCALARS te float
LOOKUP_TABLE default
0.558763
0.773306
1.10304
1.32804
1.48431
1.56891
1.64233
1.79475
2.19947
2.92992
3.15131
1.6792
1.29871
1.61293
1.61337
1.66041
1.72749
1.81446
1.94524
2.05529
1.96874
1.66205
0.570647
0.779166
1.10963
1.34131
1.512
1.62388
1.73721
1.92816
2.34342
3.04111
3.23845
2.44909
2.25865
2.37825
2.35719
2.3275
2.3024
2.27719
2.28736
2.28643
2.11383
1.76258
0.596159
0.792683
1.1246
1.37091
1.57182
1.73658
1.9177
2.16939
2.60528
3.28222
3.59186
3.50644
3.33362
3.43209
3.34956
3.2306
3.10333
2.96098
2.83698
2.70035
2.39254
1.94841
0.610934
0.809531
1.14313
1.40684
1.64107
1.85768
2.09383
2.38939
2.83245
3.50303
3.99269
4.44067
4.17353
4.26387
4.12838
3.95449
3.7506
3.53419
3.31874
3.09095
2.67128
2.15615
0.601746
0.826319
1.16275
1.44524
1.71272
1.97518
2.25308
2.57957
3.02303
3.71238
4.43811
5.55628
5.10568
5.15097
4.92233
4.66757
4.37933
4.08614
3.78554
3.47319
2.94868
2.36564
0.564592
0.836585
1.17708
1.47567
1.77054
2.0682
2.37712
2.72999
3.1836
3.91783
4.9217
7.08838
6.37514
6.23992
5.84952
5.45806
5.06008
4.66338
4.26394
3.85443
3.21833
2.54303
0.549465
0.838487
1.18199
1.48897
1.79797
2.11327
2.43975
2.81346
3.29323
4.08289
5.33621
9.33716
8.24532
7.58963
6.90796
6.29491
5.74038
5.21091
4.69975
4.18568
3.444
2.61455
50
46.3787
41.6695
37.4968
33.7764
30.4678
27.5017
24.7961
22.2324
19.5603
16.3779
11.2755
9.87898
8.75416
7.82069
7.01389
6.31579
5.66682
5.05555
4.45157
3.62298
2.62362
50
46.3788
41.6715
37.4992
33.779
30.4695
27.5002
24.7879
22.212
19.526
16.3548
12.4692
10.8713
9.5551
8.51021
7.61446
6.82952
6.10244
5.41489
4.73567
3.82647
2.7008
50
46.3981
41.6962
37.5303
33.8177
30.5148
27.5509
24.8422
22.2703
19.5989
16.4522
13.1797
11.558
10.179
9.08026
8.13605
7.29509
6.51021
5.76175
5.01956
4.04471
2.92978
50
46.4331
41.7376
37.5806
33.878
30.5841
27.6286
24.9273
22.3661
19.7213
16.6097
13.6903
12.0417
10.6465
9.5184
8.54148
7.66005
6.8307
6.03695
5.24809
4.23294
3.16685
50
46.4769
41.789
37.6419
33.951
30.668
27.7232
25.0329
22.4883
19.8784
16.8052
14.0985
12.4176
11.0267
9.88441
8.88418
7.96926
7.10144
6.26914
5.44133
4.3984
3.36676
50
46.5249
41.8457
37.7094
34.0313
30.7609
27.8292
25.1541
22.6325
20.0656
17.0327
14.4543
12.735
11.3598
10.2148
9.19913
8.25646
7.35305
6.4842
5.61995
4.55184
3.53901
50
46.5733
41.9038
37.7788
34.1148
30.8591
27.9441
25.29
22.801
20.2894
17.3049
14.8005
13.056
11.7097
10.5721
9.54723
8.58171
7.64171
6.73049
5.82192
4.71636
3.7394
50
46.6179
41.9579
37.8442
34.1946
30.955
28.059
25.4303
22.9801
20.5305
17.5975
15.1145
13.3933
12.0866
10.9611
9.92768
8.93719
7.95906
7.00013
6.0398
4.88807
3.97287
50
46.6537
42.0017
37.8978
34.2611
31.0364
28.1587
25.5545
23.1419
20.7494
17.8585
15.3549
13.711
12.4465
11.3309
10.2826
9.26234
8.24648
7.24244
6.23317
5.04359
4.2095
50
46.6757
42.0279
37.9311
34.3036
31.0907
28.228
25.6447
23.2642
20.9209
18.064
15.5287
14.0048
12.7848
11.6775
10.608
9.55534
8.5041
7.45903
6.40592
5.18841
4.51418
50
46.6815
42.0331
37.9381
34.3135
31.1056
28.2507
25.6798
23.3196
21.0109
18.181
15.6463
14.2652
13.0931
11.9868
10.8914
9.80422
8.72074
7.63973
6.55083
5.31699
4.78424
50
46.674
42.0204
37.9217
34.2929
31.0816
28.2249
25.6542
23.2965
20.9973
18.1814
15.7056
14.4244
13.2855
12.1683
11.0479
9.93013
8.82034
7.71635
6.60725
5.37031
4.77809
50
46.6558
41.994
37.8889
34.2525
31.0345
28.1715
25.5957
23.2327
20.9309
18.1231
15.7135
14.5044
13.3866
12.2604
11.1196
9.98128
8.85484
7.73963
6.62148
5.38637
4.71315
50
46.6311
41.9605
37.8489
34.2048
30.9802
28.1112
25.5294
23.1605
20.8538
18.0519
15.6874
14.5439
13.4459
12.3132
11.1566
10.0029
8.86588
7.74439
6.62146
5.38827
4.72488
50
46.6046
41.9257
37.8083
34.157
30.926
28.0512
25.4633
23.0875
20.7747
17.9756
15.638
14.5571
13.4785
12.3423
11.1738
10.0081
8.86319
7.73784
6.61254
5.38141
4.76182
50
46.5774
41.8909
37.7676
34.1092
30.8715
27.9905
25.3961
23.0115
20.6903
17.8922
15.5716
14.549
13.4899
12.3528
11.1752
9.99976
8.84899
7.72144
6.59561
5.36518
4.75935
50
46.5493
41.8557
37.7263
34.0603
30.8154
27.9273
25.3253
22.9303
20.5962
17.7976
15.4914
14.5216
13.4803
12.3447
11.1605
9.97742
8.82243
7.69434
6.56954
5.33828
4.70074
50
46.5213
41.8217
37.6861
34.0127
30.7603
27.8649
25.2546
22.8483
20.4974
17.696
15.4018
14.4757
13.4467
12.3141
11.127
9.93937
8.78271
7.65626
6.53428
5.30252
4.64225
50
46.4946
41.7906
37.6492
33.9691
30.7096
27.8074
25.1885
22.7704
20.4
17.5926
15.3074
14.4098
13.3841
12.2558
11.0709
9.88396
8.72947
7.60743
6.49063
5.26003
4.60912
50
46.4687
41.7619
37.615
33.9286
30.6622
27.7528
25.1253
22.6941
20.3
17.4829
15.203
14.3162
13.2878
12.1663
10.9893
9.8085
8.6605
7.54589
6.43661
5.20913
4.53203
50
46.442
41.7336
37.5811
33.888
30.6143
27.6967
25.0593
22.6124
20.1886
17.3576
15.0673
14.1802
13.1502
12.04
10.8768
9.70694
8.56958
7.46573
6.36675
5.14538
4.36483
50
46.414
41.7049
37.5459
33.8449
30.5625
27.6345
24.9847
22.518
20.0548
17.204
14.8596
13.974
12.9498
11.859
10.7159
9.56331
8.44226
7.35323
6.26947
5.06137
4.06076
50
46.3898
41.68
37.5133
33.8027
30.5089
27.5664
24.8989
22.4048
19.8851
17.0008
14.4975
13.6395
12.6336
11.5734
10.4606
9.33767
8.24381
7.17894
6.12124
4.94294
3.59602
50
46.3811
41.6715
37.5005
33.7832
30.4803
27.5243
24.8369
22.3088
19.7147
16.7003
13.8214
13.1055
12.1532
11.1451
10.084
9.0159
7.96976
6.94642
5.93212
4.80237
3.59056
0.559605
0.837437
1.18259
1.49316
1.80793
2.12937
2.46072
2.8416
3.33663
4.13897
5.4915
12.5398
11.9025
11.1647
10.3406
9.44258
8.51662
7.5805
6.64582
5.70802
4.64978
3.63517
0.59175
0.833412
1.17988
1.49151
1.80645
2.12391
2.44368
2.80332
3.26324
4.00359
5.39009
10.9378
10.6801
10.1542
9.50411
8.75993
7.96396
7.13154
6.2895
5.43465
4.46094
3.56727
0.632939
0.822388
1.16933
1.4767
1.78253
2.08275
2.37328
2.68861
3.09317
3.7702
5.16816
9.62135
9.65239
9.26426
8.73103
8.09567
7.39706
6.65294
5.8954
5.1233
4.23933
3.39373
0.642066
0.806064
1.1528
1.45252
1.74512
2.0246
2.28443
2.55418
2.90311
3.50781
4.83704
8.57529
8.78175
8.49531
8.04914
7.49486
6.87286
6.20437
5.52116
4.82362
4.02075
3.25931
0.630851
0.786428
1.13203
1.42175
1.69879
1.95653
2.18663
2.41204
2.70188
3.22113
4.44269
7.66594
7.98276
7.77717
7.40378
6.91983
6.3665
5.76812
5.1556
4.52862
3.8035
3.13095
0.607832
0.763803
1.10719
1.38457
1.64375
1.87941
2.08266
2.26919
2.50096
2.93087
4.01633
6.82729
7.21026
7.07466
6.76519
6.34718
5.85978
5.32949
4.78569
4.22823
3.58206
2.98407
0.577672
0.738377
1.07854
1.341
1.57943
1.79302
1.97434
2.13229
2.31735
2.66317
3.58713
6.02985
6.44965
6.37169
6.12122
5.76609
5.34366
4.88028
4.40454
3.91733
3.35316
2.81812
0.544761
0.711726
1.04793
1.29297
1.50715
1.69772
1.86205
2.0046
2.16198
2.43814
3.18234
5.26658
5.69699
5.66544
5.47149
5.17869
4.82027
4.42248
4.01486
3.59765
3.11976
2.64648
0.512417
0.685923
1.01807
1.24419
1.43063
1.59453
1.74354
1.88078
2.02666
2.25326
2.82372
4.53808
4.95467
4.96327
4.82449
4.593
4.29739
3.96447
3.62263
3.27483
2.88754
2.48218
0.479419
0.660941
0.989596
1.19606
1.35104
1.48146
1.61052
1.74384
1.88509
2.07422
2.49955
3.84008
4.21597
4.26115
4.1777
4.00652
3.77181
3.50178
3.22384
2.9478
2.65758
2.32953
0.441808
0.635451
0.961426
1.14691
1.26457
1.34814
1.44136
1.55932
1.69031
1.8354
2.1644
3.13216
3.43947
3.51612
3.48745
3.3749
3.20123
2.99888
2.79406
2.59978
2.42588
2.18533
0.396417
0.609139
0.933342
1.09603
1.16711
1.17493
1.18312
1.23262
1.30681
1.35622
1.68296
2.22397
2.37812
2.49125
2.53702
2.50653
2.4272
2.334
2.25258
2.18961
2.18436
2.04523
0.366414
0.595506
0.919179
1.06982
1.11344
1.06371
0.972349
0.888593
0.821128
0.671596
1.26264
1.68766
1.56105
1.68259
1.78893
1.82632
1.83355
1.84862
1.88699
1.93738
2.05451
1.98652
SCALARS ti float
LOOKUP_TABLE default
2.74316
2.74423
2.73876
2.72139
2.67973
2.59283
2.42537
2.10121
1.46989
0.725659
0.377177
0.332897
0.316054
0.307672
0.323001
0.392322
0.564118
0.874612
1.20209
1.41123
1.48844
1.47422
2.74416
2.74529
2.74123
2.7286
2.70144
2.65392
2.58477
2.49787
2.40565
2.33015
2.31184
2.2827
2.21479
2.13172
2.00441
1.86862
1.75121
1.66419
1.60665
1.5696
1.54306
1.52667
2.79224
2.79402
2.79693
2.801
2.80798
2.82076
2.84329
2.8808
2.94115
3.04263
3.20177
3.28879
3.25514
3.14639
2.9563
2.7284
2.50359
2.30682
2.14959
2.03697
1.96667
1.94101
2.88203
2.88421
2.88958
2.89881
2.9151
2.94296
2.9878
3.05635
3.15978
3.32887
3.61232
3.85296
3.89935
3.83689
3.66384
3.43219
3.18708
2.95696
2.76161
2.6124
2.51477
2.4771
2.99113
2.99374
3.00039
3.01239
3.03446
3.07369
3.13927
3.24303
3.40477
3.6716
4.12857
4.58595
4.72598
4.71138
4.54498
4.29606
4.01488
3.73765
3.49061
3.29295
3.15805
3.10441
3.08377
3.0869
3.09614
3.11394
3.14778
3.20925
3.31366
3.48144
3.74733
4.18819
4.96057
5.83808
6.03547
5.99587
5.74572
5.39683
5.01039
4.63244
4.29346
4.02102
3.83422
3.76176
3.12417
3.1277
3.14008
3.16562
3.21516
3.3056
3.45885
3.70418
4.0941
4.74653
6.13561
8.75143
8.49869
7.95643
7.2817
6.60816
5.98135
5.43192
4.97475
4.62682
4.3987
4.31135
50
48.153
44.6274
41.1362
37.8262
34.6941
31.6867
28.7142
25.614
22.0624
17.9257
12.8701
10.7426
9.46046
8.40045
7.50843
6.7569
6.13344
5.63061
5.25148
5.00615
4.91864
50
48.1102
44.5731
41.049
37.6829
34.4695
31.3465
28.2154
24.9192
21.1839
17.0902
13.9235
12.2757
10.8915
9.71941
8.73513
7.92168
7.26571
6.75609
6.38431
6.14892
6.06352
50
47.9136
44.2508
40.6342
37.1802
33.8727
30.6381
27.3735
23.9746
20.3483
16.6826
14.0758
12.6369
11.4157
10.3798
9.50118
8.77006
8.1832
7.73486
7.4156
7.21559
7.13973
50
47.5812
43.7159
39.9898
36.452
33.0627
29.7256
26.3324
22.8269
19.2638
15.8788
13.5934
12.3196
11.2172
10.2814
9.48936
8.83108
8.30446
7.90681
7.62816
7.45417
7.38699
50
47.1476
43.0429
39.2015
35.5797
32.1097
28.6638
25.116
21.4409
17.8049
14.5212
12.3871
11.2595
10.2844
9.45194
8.74108
8.14236
7.65539
7.28193
7.01754
6.85413
6.79639
50
46.6405
42.2914
38.3329
34.6287
31.0857
27.5491
23.8611
19.9834
16.1165
12.6594
10.4454
9.36506
8.44482
7.64801
6.95043
6.34326
5.82672
5.40692
5.08745
4.86862
4.77233
50
46.0945
41.5265
37.4583
33.6896
30.1231
26.6163
23.0357
19.3499
15.6739
12.3031
10.1411
9.11179
8.24361
7.48718
6.81764
6.22931
5.72385
5.3076
4.98735
4.76803
4.6711
50
45.5617
40.8187
36.6541
32.845
29.311
25.9636
22.7401
19.6412
16.6524
13.7545
11.8077
10.8623
10.0875
9.41864
8.83009
8.31183
7.86701
7.50518
7.23563
7.06939
7.01192
50
45.1169
40.2475
36.0019
32.1688
28.6858
25.518
22.6368
20.0104
17.5104
14.9227
13.1126
12.2246
11.5057
10.8871
10.3378
9.84
9.39803
9.02644
8.73897
8.55686
8.48629
50
44.8503
39.9036
35.6054
31.767
28.3393
25.3181
22.6808
20.3542
18.1458
15.7349
14.0069
13.2658
12.6556
12.127
11.6466
11.1924
10.7704
10.395
10.0829
9.8732
9.78347
50
44.8101
39.8388
35.5391
31.7282
28.3616
25.4401
22.9358
20.7602
18.715
16.4506
14.8169
14.2715
13.7619
13.2995
12.8657
12.4612
12.0882
11.7502
11.4519
11.2255
11.116
50
44.9637
40.0152
35.7697
32.0234
28.7244
25.8607
23.3975
21.2522
19.268
17.1706
15.746
15.1793
14.654
14.1709
13.7283
13.3275
12.9725
12.6642
12.4038
12.1999
12.0918
50
45.2749
40.3683
36.1971
32.5165
29.2663
26.4203
23.9374
21.7492
19.7392
17.7489
16.4562
15.793
15.2133
14.6942
14.2291
13.8184
13.4649
13.1733
12.9469
12.7846
12.7086
50
45.6719
40.815
36.7111
33.0799
29.8518
26.9907
24.4509
22.1743
20.0803
18.1046
16.8245
16.1328
15.5336
15.0045
14.5351
14.1258
13.7809
13.5047
13.2983
13.158
13.1015
50
46.0673
41.2789
37.2311
33.6336
30.4094
27.5112
24.8901
22.4992
20.2974
18.297
17.0039
16.3248
15.7327
15.2114
14.7515
14.3505
14.0092
13.7304
13.5125
13.3509
13.2773
50
46.4385
41.7492
37.7565
34.191
30.9703
28.0385
25.3447
22.8592
20.5772
18.5448
17.2408
16.56
15.9666
15.4459
14.9898
14.5959
14.2645
13.9966
13.7892
13.6364
13.569
50
46.788
42.2274
38.2943
34.7644
31.554
28.6013
25.8535
23.2931
20.9388
18.8652
17.5384
16.8406
16.2332
15.7006
15.2349
14.8343
14.4994
14.2286
14.0172
13.8563
13.7836
50
47.1026
42.6894
38.8172
35.3225
32.1265
29.163
26.3784
23.7554
21.3283
19.1949
17.8339
17.1121
16.4826
15.9315
15.452
15.0425
14.7028
14.4291
14.215
14.0495
13.9748
50
47.3698
43.1089
39.2961
35.8322
32.6503
29.6821
26.8739
24.1982
21.6923
19.4708
18.0512
17.294
16.6343
16.061
15.5677
15.1495
14.8044
14.528
14.3136
14.1495
14.0772
50
47.5992
43.496
39.7426
36.3086
33.1422
30.1785
27.3617
24.6445
22.0515
19.6997
18.1909
17.3812
16.6768
16.0687
15.5475
15.1078
14.746
14.4538
14.2247
14.0476
13.9675
50
47.8089
43.875
40.1856
36.7835
33.6345
30.6833
27.8685
25.12
22.4207
19.8925
18.3052
17.414
16.6389
15.9725
15.4059
14.932
14.5455
14.2412
14.013
13.8504
13.7873
50
47.9992
44.245
40.6285
37.2599
34.1239
31.1767
28.3467
25.5357
22.6627
19.8852
18.1363
17.1636
16.3359
15.6302
15.0258
14.5122
14.0866
13.7472
13.4879
13.2968
13.2174
50
48.1308
44.5328
40.9972
37.6724
34.5556
31.6096
28.7558
25.8648
22.7356
19.6472
17.4518
16.4526
15.6183
14.8816
14.2354
13.6682
13.18
12.7778
12.4601
12.2206
12.1172
50
48.1541
44.6088
41.1077
37.8
34.6866
31.7254
28.8368
25.8754
22.5566
19.108
16.0554
15.1208
14.368
13.655
12.9965
12.3971
11.8645
11.4156
11.0585
10.7969
10.6933
3.13532
3.13879
3.15461
3.18901
3.25777
3.38608
3.60931
3.97835
4.58338
5.60468
7.61624
11.1014
11.8808
11.8393
11.5334
11.117
10.6663
10.2308
9.84939
9.54284
9.32383
9.24014
3.11504
3.11818
3.13448
3.16933
3.23717
3.35932
3.56345
3.88389
4.36449
5.06151
6.0701
7.15766
7.70927
7.94526
8.00963
7.9644
7.84879
7.69593
7.53708
7.39434
7.28423
7.23471
2.9408
2.94345
2.95424
2.97595
3.01682
3.08854
3.20572
3.38526
3.64513
4.00617
4.48802
4.90361
5.12317
5.23487
5.27597
5.26546
5.21761
5.14647
5.06682
4.99117
4.92927
4.89811
2.6353
2.63756
2.64421
2.65642
2.67876
2.71768
2.78146
2.87975
3.02239
3.21904
3.46257
3.62822
3.69814
3.71948
3.70493
3.66348
3.60376
3.53501
3.46645
3.40558
3.3577
3.33429
2.33703
2.33916
2.34411
2.3524
2.36715
2.39268
2.43468
2.50006
2.59586
2.72653
2.87486
2.95049
2.96747
2.95122
2.90927
2.84899
2.77798
2.70447
2.63608
2.57839
2.53501
2.51494
2.11648
2.11863
2.1231
2.13017
2.1425
2.16377
2.19897
2.25427
2.33597
2.44621
2.56177
2.60428
2.60083
2.56747
2.51121
2.43978
2.36109
2.28323
2.21316
2.15571
2.11398
2.09542
1.97311
1.97532
1.97978
1.98657
1.99821
2.01825
2.05148
2.1039
2.18171
2.2859
2.3895
2.4166
2.40178
2.35705
2.29032
2.21007
2.12481
2.04268
1.97029
1.91214
1.87112
1.85344
1.88665
1.88891
1.89334
1.89988
1.91098
1.93003
1.9615
2.01108
2.08442
2.18112
2.27377
2.28903
2.26477
2.21043
2.13487
2.04727
1.95641
1.87053
1.79619
1.73752
1.69734
1.68064
1.83632
1.83861
1.84248
1.8479
1.85723
1.87359
1.90104
1.94466
2.00902
2.09212
2.16793
2.17052
2.13702
2.07404
1.9908
1.89707
1.8022
1.71439
1.63983
1.58218
1.54389
1.52864
1.80659
1.80888
1.81149
1.81431
1.81921
1.82883
1.84685
1.878
1.9267
1.9906
2.0473
2.03941
1.99861
1.9289
1.84057
1.74417
1.6493
1.56365
1.49247
1.43857
1.40372
1.3903
1.78941
1.79165
1.79236
1.79079
1.78725
1.78248
1.77905
1.78245
1.80055
1.83617
1.87771
1.87159
1.8302
1.76025
1.6744
1.58356
1.49691
1.42108
1.35982
1.31434
1.28521
1.27378
1.78191
1.78401
1.78287
1.7763
1.76083
1.73041
1.67873
1.60571
1.52774
1.4796
1.47544
1.48096
1.46131
1.4251
1.38207
1.33868
1.29949
1.26657
1.23985
1.21847
1.20194
1.19234
1.78153
1.78367
1.78223
1.77472
1.75621
1.7156
1.63194
1.47308
1.2329
1.04474
0.829364
0.713392
0.756029
0.84263
0.93883
1.03375
1.11331
1.16534
1.18966
1.19592
1.19303
1.1844
SCALARS na0 float
LOOKUP_TABLE default
4.8877e+017
4.88621e+017
4.9098e+017
4.97794e+017
5.13982e+017
5.49146e+017
6.24791e+017
8.13174e+017
1.50326e+018
4.9589e+018
1.68372e+019
2.49214e+019
2.84482e+019
2.91683e+019
2.45993e+019
1.64676e+019
8.75943e+018
4.27138e+018
2.53643e+018
1.93579e+018
1.75907e+018
1.77476e+018
4.88555e+017
4.88396e+017
4.90458e+017
4.96165e+017
5.08479e+017
5.31275e+017
5.68302e+017
6.23844e+017
7.01758e+017
8.0981e+017
9.46996e+017
1.07591e+018
1.19991e+018
1.31586e+018
1.43593e+018
1.5402e+018
1.61297e+018
1.65018e+018
1.6614e+018
1.66497e+018
1.67535e+018
1.69325e+018
4.72001e+017
4.71758e+017
4.71742e+017
4.72141e+017
4.72994e+017
4.74196e+017
4.75376e+017
4.75998e+017
4.75331e+017
4.7286e+017
4.71186e+017
4.84552e+017
5.14678e+017
5.58081e+017
6.19233e+017
6.94308e+017
7.7661e+017
8.58674e+017
9.32845e+017
9.91424e+017
1.02994e+018
1.04359e+018
4.42515e+017
4.42243e+017
4.41553e+017
4.40384e+017
4.38343e+017
4.34892e+017
4.29435e+017
4.21351e+017
4.09754e+017
3.92351e+017
3.67372e+017
3.5175e+017
3.55342e+017
3.69355e+017
3.95401e+017
4.30535e+017
4.71455e+017
5.14996e+017
5.56925e+017
5.92547e+017
6.17402e+017
6.26813e+017
4.10796e+017
4.10504e+017
4.09639e+017
4.07998e+017
4.04944e+017
3.99574e+017
3.90858e+017
3.77773e+017
3.58972e+017
3.31616e+017
2.93074e+017
2.62172e+017
2.53472e+017
2.5396e+017
2.6353e+017
2.79487e+017
3.00007e+017
3.23309e+017
3.47198e+017
3.68841e+017
3.85031e+017
3.91697e+017
3.88353e+017
3.88031e+017
3.86857e+017
3.84446e+017
3.79811e+017
3.71547e+017
3.58157e+017
3.3833e+017
3.10661e+017
2.72859e+017
2.23476e+017
1.83199e+017
1.71272e+017
1.68232e+017
1.72553e+017
1.81577e+017
1.94142e+017
2.09083e+017
2.25108e+017
2.40177e+017
2.51854e+017
2.56717e+017
3.79696e+017
3.79347e+017
3.77779e+017
3.74364e+017
3.67715e+017
3.55926e+017
3.37191e+017
3.10303e+017
2.74209e+017
2.27523e+017
1.62953e+017
1.00934e+017
9.60655e+016
9.90386e+016
1.06458e+017
1.16675e+017
1.2902e+017
1.42631e+017
1.56479e+017
1.68914e+017
1.78062e+017
1.81689e+017
9.20315e+013
9.54582e+013
1.58449e+014
3.02116e+014
5.78307e+014
1.06759e+015
1.87742e+015
3.15769e+015
5.15155e+015
8.38117e+015
1.4549e+016
2.90241e+016
4.05083e+016
5.05997e+016
6.15722e+016
7.34352e+016
8.59304e+016
9.85187e+016
1.10465e+017
1.20648e+017
1.27656e+017
1.29951e+017
1.18028e+014
1.22652e+014
2.17123e+014
4.3767e+014
8.60724e+014
1.5897e+015
2.74682e+015
4.47662e+015
6.99115e+015
1.07508e+016
1.66399e+016
2.34605e+016
2.83424e+016
3.37381e+016
3.96911e+016
4.61021e+016
5.27468e+016
5.92711e+016
6.52171e+016
7.0071e+016
7.32846e+016
7.43303e+016
2.4691e+014
2.57662e+014
4.15042e+014
7.43017e+014
1.29466e+015